! Touchstone file exported from HFSS 2021.2.0
!        File:           C:/Users/lf.quiroga/Downloads/powerlog_1tx_1rx_1agosto2022.aedt
!        Generated:      10:37:48 p.%xA0m.  ago. 01, 2022
!        Design:         escen7_esferaPEC_freq_1_3_5_7_GHz
!        Project:        powerlog_1tx_1rx_1agosto2022
!        Setup:          Setup1
!        Solution:       LastAdaptive
!
! Variables:
!        S = 9mm
!        W = 29mm
!        W_2 = 25mm
!        a = 24mm
!        b = 14mm
!        box_h = 41mm
!        box_thickness = 3mm
!        cavity_to_feed = 1mm
!        cavitybase_to_lowerridge = 5mm
!        copper_h = 35um
!        dist_antena_borde = 150mm
!        dist_horn_object = 150mm
!        dist_rx_tx = 320mm
!        distance_to_CS1 = 178mm
!        distancia_suelo = 0mm
!        feed_hole_height = 37.3mm
!        feed_hole_radius = 2.3mm
!        h_antena = 300mm
!        h_cavity = 11mm
!        h_cubeta = 800mm
!        h_object = 0mm
!        h_soil = 0mm
!        line_step = 100mm
!        metal_height = 168mm
!        metal_reference = 131mm
!        metal_reference_y = 17mm
!        metal_thickness = 2mm
!        pin_height = 38.8mm
!        pin_radius = 1mm
!        r_object = 70mm
!        r_sphere = 35mm
!        ridge_thickness = 10.86mm
!        ridge_to_cavitybase = 34mm
!        upperflare_x = 91.8mm
!        upperflare_z = 123.5mm
!        wedge_width = 20mm
!        x_arena = 476mm
!        x_boca_antena = 182mm
!        x_sensitivity = 53mm
!        z_sensitivity = 150mm
!        z_soil = 547.14mm
!
# GHz S MA R 50.000000
! Terminal data exported
! Port[1] = feed_pin1_T1
! Port[2] = feed_pin1_T2
1                              0.620289087690392 14.6091558775114 0.0254663564153397 -147.296346999317 0.0254663564153396 -147.296346999317 0.620279467800993 14.5303670174658 
! Gamma         0                -0               0                -0               
! Port Impedance         50               0                50               0                
3                              0.0925435413675919 -94.2774105251913 0.0144833074578534 30.8639265060738 0.0144833074578541 30.8639265060737 0.0925691751291048 -94.8835572591   
! Gamma         -0               0                0                -0               
! Port Impedance         50               0                50               0                
5                              0.125370179598822 152.680541113647 0.00339121223451044 -66.6630965831331 0.00339121223451155 -66.6630965831282 0.125021793468382 152.675476455661 
! Gamma         -0               0                -0               0                
! Port Impedance         50               0                50               0                
7                              0.258931580476972 -10.7404954803136 0.00408034788047993 146.325075001386 0.00408034788047981 146.325075001387 0.257408513103128 -10.6135888995476 
! Gamma         -0               0                -0               0                
! Port Impedance         50               0                50               0                
