! Touchstone file exported from HFSS 2021.2.0
!        File:           C:/Users/lf.quiroga/Downloads/powerlog_1tx_1rx_8julio2022.aedt
!        Generated:      7:33:06 p.%xA0m.  jul. 11, 2022
!        Design:         escen4_arena_esferaPEC_freq_1_3_5_7_GHz1
!        Project:        powerlog_1tx_1rx_8julio2022
!        Setup:          Setup1
!        Solution:       LastAdaptive
!
! Variables:
!        S = 9mm
!        W = 29mm
!        W_2 = 25mm
!        a = 24mm
!        b = 14mm
!        box_h = 41mm
!        box_thickness = 3mm
!        cavity_to_feed = 1mm
!        cavitybase_to_lowerridge = 5mm
!        copper_h = 35um
!        dist_antena_borde = 150mm
!        dist_horn_object = 150mm
!        dist_rx_tx = 320mm
!        distance_to_CS1 = 178mm
!        distancia_suelo = 0mm
!        feed_hole_height = 37.3mm
!        feed_hole_radius = 2.3mm
!        h_antena = 250mm
!        h_cavity = 11mm
!        h_cubeta = 800mm
!        h_object = 0mm
!        h_soil = 0mm
!        line_step = 100mm
!        metal_height = 168mm
!        metal_reference = 131mm
!        metal_reference_y = 17mm
!        metal_thickness = 2mm
!        pin_height = 38.8mm
!        pin_radius = 1mm
!        r_object = 70mm
!        r_sphere = 35mm
!        ridge_thickness = 10.86mm
!        ridge_to_cavitybase = 34mm
!        upperflare_x = 91.8mm
!        upperflare_z = 123.5mm
!        wedge_width = 20mm
!        x_arena = 476mm
!        x_boca_antena = 182mm
!        x_sensitivity = 53mm
!        z_sensitivity = 150mm
!        z_soil = 547.14mm
!
# GHz S MA R 50.000000
! Terminal data exported
! Port[1] = feed_pin1_T1
! Port[2] = feed_pin1_T2
1                              0.598861617896798 12.8902538369712 0.0419383856714894 -156.126786758491 0.0419383856718839 -156.12678675903 0.599200634487062 12.914666332491  
! Gamma         -0               0                0                -0               
! Port Impedance         50               0                50               0                
3                              0.119357697319372 -81.3773939239602 0.0141695198567997 12.9959247495863 0.0141695198567963 12.9959247495263 0.119585490373979 -81.4796853988471 
! Gamma         -0               0                -0               0                
! Port Impedance         50               0                50               0                
5                              0.160014866138508 144.524098021948 0.00320449831967853 -9.40067093547981 0.00320449831968111 -9.40067093568183 0.158121080709441 144.107734342461 
! Gamma         0                -0               -0               0                
! Port Impedance         50               0                50               0                
7                              0.284338634139944 -13.7640575482387 0.00709199567977485 168.343438591779 0.00709199567977475 168.343438591858 0.286148177588188 -13.7534409013241 
! Gamma         -0               0                -0               0                
! Port Impedance         50               0                50               0                
