! Touchstone file exported from HFSS 2021.2.0
!        File:           C:/Users/lf.quiroga/Downloads/powerlog_1tx_1rx_8julio2022.aedt
!        Generated:      7:29:03 p.%xA0m.  jul. 11, 2022
!        Design:         escen1_vacio_freq_1_3_5_7_GHz
!        Project:        powerlog_1tx_1rx_8julio2022
!        Setup:          Setup1
!        Solution:       LastAdaptive
!
! Variables:
!        S = 9mm
!        W = 29mm
!        W_2 = 25mm
!        a = 24mm
!        b = 14mm
!        box_h = 41mm
!        box_thickness = 3mm
!        cavity_to_feed = 1mm
!        cavitybase_to_lowerridge = 5mm
!        copper_h = 35um
!        dist_antena_borde = 150mm
!        dist_horn_object = 150mm
!        dist_rx_tx = 320mm
!        distance_to_CS1 = 178mm
!        distancia_suelo = 0mm
!        feed_hole_height = 37.3mm
!        feed_hole_radius = 2.3mm
!        h_antena = 250mm
!        h_cavity = 11mm
!        h_cubeta = 800mm
!        h_object = 0mm
!        h_soil = 0mm
!        line_step = 100mm
!        metal_height = 168mm
!        metal_reference = 131mm
!        metal_reference_y = 17mm
!        metal_thickness = 2mm
!        pin_height = 38.8mm
!        pin_radius = 1mm
!        r_object = 70mm
!        r_sphere = 35mm
!        ridge_thickness = 10.86mm
!        ridge_to_cavitybase = 34mm
!        upperflare_x = 91.8mm
!        upperflare_z = 123.5mm
!        wedge_width = 20mm
!        x_arena = 476mm
!        x_boca_antena = 182mm
!        x_sensitivity = 53mm
!        z_sensitivity = 150mm
!        z_soil = 547.14mm
!
# GHz S MA R 50.000000
! Terminal data exported
! Port[1] = feed_pin1_T1
! Port[2] = feed_pin1_T2
1                              0.619210915131432 13.6992865630381 0.028563660322801 177.509055308073 0.0285636603228007 177.509055308073 0.620194753230308 13.74688534001   
! Gamma         -0               0                -0               0                
! Port Impedance         50               0                50               0                
3                              0.0881586274428143 -102.650679783863 0.010973338098181 -10.3766127565512 0.0109733380981808 -10.3766127565503 0.0867929634192562 -102.045156191766 
! Gamma         0                -0               0                -0               
! Port Impedance         50               0                50               0                
5                              0.12407207644897 151.17777272233  0.00861438789768939 71.2755431814073 0.0086143878976896 71.2755431814001 0.125310668401342 149.341468049198 
! Gamma         0                -0               -0               0                
! Port Impedance         50               0                50               0                
7                              0.265250174571956 -10.3776596100668 0.00366907440736899 129.21238853847  0.00366907440736888 129.212388538469 0.26356317772862 -10.1594137399727 
! Gamma         -0               0                0                -0               
! Port Impedance         50               0                50               0                
