! Touchstone file exported from HFSS 2021.2.0
!        File:           C:/Users/lf.quiroga/Downloads/powerlog_1tx_1rx_8julio2022.aedt
!        Generated:      7:31:53 p.%xA0m.  jul. 11, 2022
!        Design:         escen3_esferaPEC_freq_1_3_5_7_GHz1
!        Project:        powerlog_1tx_1rx_8julio2022
!        Setup:          Setup1
!        Solution:       LastAdaptive
!
! Variables:
!        S = 9mm
!        W = 29mm
!        W_2 = 25mm
!        a = 24mm
!        b = 14mm
!        box_h = 41mm
!        box_thickness = 3mm
!        cavity_to_feed = 1mm
!        cavitybase_to_lowerridge = 5mm
!        copper_h = 35um
!        dist_antena_borde = 150mm
!        dist_horn_object = 150mm
!        dist_rx_tx = 320mm
!        distance_to_CS1 = 178mm
!        distancia_suelo = 0mm
!        feed_hole_height = 37.3mm
!        feed_hole_radius = 2.3mm
!        h_antena = 250mm
!        h_cavity = 11mm
!        h_cubeta = 800mm
!        h_object = 0mm
!        h_soil = 0mm
!        line_step = 100mm
!        metal_height = 168mm
!        metal_reference = 131mm
!        metal_reference_y = 17mm
!        metal_thickness = 2mm
!        pin_height = 38.8mm
!        pin_radius = 1mm
!        r_object = 70mm
!        r_sphere = 35mm
!        ridge_thickness = 10.86mm
!        ridge_to_cavitybase = 34mm
!        upperflare_x = 91.8mm
!        upperflare_z = 123.5mm
!        wedge_width = 20mm
!        x_arena = 476mm
!        x_boca_antena = 182mm
!        x_sensitivity = 53mm
!        z_sensitivity = 150mm
!        z_soil = 547.14mm
!
# GHz S MA R 50.000000
! Terminal data exported
! Port[1] = feed_pin1_T1
! Port[2] = feed_pin1_T2
1                              0.618417679795196 14.8159873022145 0.0230290721151026 -154.523205416664 0.0230290721151029 -154.523205416665 0.618353829144788 14.8352135813158 
! Gamma         -0               0                0                0                
! Port Impedance         50               0                50               0                
3                              0.092452045190117 -92.6762379495585 0.0179802897732998 22.1690368145881 0.017980289773299 22.1690368145935 0.0912421242781377 -92.7086703413512 
! Gamma         -0               0                0                0                
! Port Impedance         50               0                50               0                
5                              0.123233361148576 154.126466425087 0.00487143545605569 3.77562530032474 0.00487143545605563 3.77562530033788 0.124713912038165 153.168892087002 
! Gamma         0                -0               0                0                
! Port Impedance         50               0                50               0                
7                              0.256987609684997 -11.0474002426472 0.00510939699608196 144.18906193611  0.00510939699608204 144.18906193611  0.258476548378671 -11.2849698836735 
! Gamma         -0               0                0                0                
! Port Impedance         50               0                50               0                
